s 0.000000000 _1_ AGT  --- 0 cbr 512 [0 0 0 0] ------- [1:0 6:0 32 0] [0] 0 0
r 0.000000000 _1_ RTR  --- 0 cbr 512 [0 0 0 0] ------- [1:0 6:0 32 0] [0] 0 0
D 0.000000000 _1_ RTR NRTE 0 cbr 532 [0 0 0 0] ------- [1:0 6:0 31 0] [0] 0 0
s 0.000169789 _0_ RTR  --- 1 OLSR 48 [0 0 0 0] ------- [0:255 -1:255 32 0] [1 0 [HELLO 0 0 0]]
r 0.002323706 _3_ RTR  --- 1 OLSR 48 [0 ffffffff 0 800] ------- [0:255 -1:255 32 0] [1 0 [HELLO 0 0 0]]
r 0.002323726 _1_ RTR  --- 1 OLSR 48 [0 ffffffff 0 800] ------- [0:255 -1:255 32 0] [1 0 [HELLO 0 0 0]]
r 0.002323726 _2_ RTR  --- 1 OLSR 48 [0 ffffffff 0 800] ------- [0:255 -1:255 32 0] [1 0 [HELLO 0 0 0]]
s 0.008000000 _1_ AGT  --- 2 cbr 512 [0 0 0 0] ------- [1:0 6:0 32 0] [1] 0 0
r 0.008000000 _1_ RTR  --- 2 cbr 512 [0 0 0 0] ------- [1:0 6:0 32 0] [1] 0 0
D 0.008000000 _1_ RTR NRTE 2 cbr 532 [0 0 0 0] ------- [1:0 6:0 31 0] [1] 0 0
s 0.016000000 _1_ AGT  --- 3 cbr 512 [0 0 0 0] ------- [1:0 6:0 32 0] [2] 0 0
r 0.016000000 _1_ RTR  --- 3 cbr 512 [0 0 0 0] ------- [1:0 6:0 32 0] [2] 0 0
D 0.016000000 _1_ RTR NRTE 3 cbr 532 [0 0 0 0] ------- [1:0 6:0 31 0] [2] 0 0
s 0.024000000 _1_ AGT  --- 4 cbr 512 [0 0 0 0] ------- [1:0 6:0 32 0] [3] 0 0
r 0.024000000 _1_ RTR  --- 4 cbr 512 [0 0 0 0] ------- [1:0 6:0 32 0] [3] 0 0
D 0.024000000 _1_ RTR NRTE 4 cbr 532 [0 0 0 0] ------- [1:0 6:0 31 0] [3] 0 0
s 0.032000000 _1_ AGT  --- 5 cbr 512 [0 0 0 0] ------- [1:0 6:0 32 0] [4] 0 0
r 0.032000000 _1_ RTR  --- 5 cbr 512 [0 0 0 0] ------- [1:0 6:0 32 0] [4] 0 0
D 0.032000000 _1_ RTR NRTE 5 cbr 532 [0 0 0 0] ------- [1:0 6:0 31 0] [4] 0 0
s 0.040000000 _1_ AGT  --- 6 cbr 512 [0 0 0 0] ------- [1:0 6:0 32 0] [5] 0 0
r 0.040000000 _1_ RTR  --- 6 cbr 512 [0 0 0 0] ------- [1:0 6:0 32 0] [5] 0 0
D 0.040000000 _1_ RTR NRTE 6 cbr 532 [0 0 0 0] ------- [1:0 6:0 31 0] [5] 0 0
s 0.044061336 _1_ RTR  --- 7 OLSR 48 [0 0 0 0] ------- [1:255 -1:255 32 0] [1 0 [HELLO 1 0 0]]
r 0.046175273 _0_ RTR  --- 7 OLSR 48 [0 ffffffff 1 800] ------- [1:255 -1:255 32 0] [1 0 [HELLO 1 0 0]]
r 0.046175393 _3_ RTR  --- 7 OLSR 48 [0 ffffffff 1 800] ------- [1:255 -1:255 32 0] [1 0 [HELLO 1 0 0]]
s 0.048000000 _1_ AGT  --- 8 cbr 512 [0 0 0 0] ------- [1:0 6:0 32 0] [6] 0 0
r 0.048000000 _1_ RTR  --- 8 cbr 512 [0 0 0 0] ------- [1:0 6:0 32 0] [6] 0 0
D 0.048000000 _1_ RTR NRTE 8 cbr 532 [0 0 0 0] ------- [1:0 6:0 31 0] [6] 0 0
s 0.056000000 _1_ AGT  --- 9 cbr 512 [0 0 0 0] ------- [1:0 6:0 32 0] [7] 0 0
r 0.056000000 _1_ RTR  --- 9 cbr 512 [0 0 0 0] ------- [1:0 6:0 32 0] [7] 0 0
D 0.056000000 _1_ RTR NRTE 9 cbr 532 [0 0 0 0] ------- [1:0 6:0 31 0] [7] 0 0
s 0.056904124 _5_ RTR  --- 10 OLSR 48 [0 0 0 0] ------- [5:255 -1:255 32 0] [1 0 [HELLO 5 0 0]]
r 0.058518077 _3_ RTR  --- 10 OLSR 48 [0 ffffffff 5 800] ------- [5:255 -1:255 32 0] [1 0 [HELLO 5 0 0]]
r 0.058518111 _7_ RTR  --- 10 OLSR 48 [0 ffffffff 5 800] ------- [5:255 -1:255 32 0] [1 0 [HELLO 5 0 0]]
r 0.058518120 _8_ RTR  --- 10 OLSR 48 [0 ffffffff 5 800] ------- [5:255 -1:255 32 0] [1 0 [HELLO 5 0 0]]
s 0.064000000 _1_ AGT  --- 11 cbr 512 [0 0 0 0] ------- [1:0 6:0 32 0] [8] 0 0
r 0.064000000 _1_ RTR  --- 11 cbr 512 [0 0 0 0] ------- [1:0 6:0 32 0] [8] 0 0
D 0.064000000 _1_ RTR NRTE 11 cbr 532 [0 0 0 0] ------- [1:0 6:0 31 0] [8] 0 0
s 0.072000000 _1_ AGT  --- 12 cbr 512 [0 0 0 0] ------- [1:0 6:0 32 0] [9] 0 0
r 0.072000000 _1_ RTR  --- 12 cbr 512 [0 0 0 0] ------- [1:0 6:0 32 0] [9] 0 0
D 0.072000000 _1_ RTR NRTE 12 cbr 532 [0 0 0 0] ------- [1:0 6:0 31 0] [9] 0 0
s 0.080000000 _1_ AGT  --- 13 cbr 512 [0 0 0 0] ------- [1:0 6:0 32 0] [10] 0 0
r 0.080000000 _1_ RTR  --- 13 cbr 512 [0 0 0 0] ------- [1:0 6:0 32 0] [10] 0 0
D 0.080000000 _1_ RTR NRTE 13 cbr 532 [0 0 0 0] ------- [1:0 6:0 31 0] [10] 0 0
s 0.082072703 _4_ RTR  --- 14 OLSR 48 [0 0 0 0] ------- [4:255 -1:255 32 0] [1 0 [HELLO 4 0 0]]
r 0.084006671 _2_ RTR  --- 14 OLSR 48 [0 ffffffff 4 800] ------- [4:255 -1:255 32 0] [1 0 [HELLO 4 0 0]]
s 0.087402627 _6_ RTR  --- 15 OLSR 48 [0 0 0 0] ------- [6:255 -1:255 32 0] [1 0 [HELLO 6 0 0]]
s 0.088000000 _1_ AGT  --- 16 cbr 512 [0 0 0 0] ------- [1:0 6:0 32 0] [11] 0 0
r 0.088000000 _1_ RTR  --- 16 cbr 512 [0 0 0 0] ------- [1:0 6:0 32 0] [11] 0 0
D 0.088000000 _1_ RTR NRTE 16 cbr 532 [0 0 0 0] ------- [1:0 6:0 31 0] [11] 0 0
r 0.089056613 _7_ RTR  --- 15 OLSR 48 [0 ffffffff 6 800] ------- [6:255 -1:255 32 0] [1 0 [HELLO 6 0 0]]
s 0.096000000 _1_ AGT  --- 17 cbr 512 [0 0 0 0] ------- [1:0 6:0 32 0] [12] 0 0
r 0.096000000 _1_ RTR  --- 17 cbr 512 [0 0 0 0] ------- [1:0 6:0 32 0] [12] 0 0
D 0.096000000 _1_ RTR NRTE 17 cbr 532 [0 0 0 0] ------- [1:0 6:0 31 0] [12] 0 0
s 0.104000000 _1_ AGT  --- 18 cbr 512 [0 0 0 0] ------- [1:0 6:0 32 0] [13] 0 0
r 0.104000000 _1_ RTR  --- 18 cbr 512 [0 0 0 0] ------- [1:0 6:0 32 0] [13] 0 0
D 0.104000000 _1_ RTR NRTE 18 cbr 532 [0 0 0 0] ------- [1:0 6:0 31 0] [13] 0 0
s 0.112000000 _1_ AGT  --- 19 cbr 512 [0 0 0 0] ------- [1:0 6:0 32 0] [14] 0 0
r 0.112000000 _1_ RTR  --- 19 cbr 512 [0 0 0 0] ------- [1:0 6:0 32 0] [14] 0 0
D 0.112000000 _1_ RTR NRTE 19 cbr 532 [0 0 0 0] ------- [1:0 6:0 31 0] [14] 0 0
s 0.120000000 _1_ AGT  --- 20 cbr 512 [0 0 0 0] ------- [1:0 6:0 32 0] [15] 0 0
r 0.120000000 _1_ RTR  --- 20 cbr 512 [0 0 0 0] ------- [1:0 6:0 32 0] [15] 0 0
D 0.120000000 _1_ RTR NRTE 20 cbr 532 [0 0 0 0] ------- [1:0 6:0 31 0] [15] 0 0
s 0.128000000 _1_ AGT  --- 21 cbr 512 [0 0 0 0] ------- [1:0 6:0 32 0] [16] 0 0
r 0.128000000 _1_ RTR  --- 21 cbr 512 [0 0 0 0] ------- [1:0 6:0 32 0] [16] 0 0
D 0.128000000 _1_ RTR NRTE 21 cbr 532 [0 0 0 0] ------- [1:0 6:0 31 0] [16] 0 0
s 0.136000000 _1_ AGT  --- 22 cbr 512 [0 0 0 0] ------- [1:0 6:0 32 0] [17] 0 0
r 0.136000000 _1_ RTR  --- 22 cbr 512 [0 0 0 0] ------- [1:0 6:0 32 0] [17] 0 0
D 0.136000000 _1_ RTR NRTE 22 cbr 532 [0 0 0 0] ------- [1:0 6:0 31 0] [17] 0 0
s 0.144000000 _1_ AGT  --- 23 cbr 512 [0 0 0 0] ------- [1:0 6:0 32 0] [18] 0 0
r 0.144000000 _1_ RTR  --- 23 cbr 512 [0 0 0 0] ------- [1:0 6:0 32 0] [18] 0 0
D 0.144000000 _1_ RTR NRTE 23 cbr 532 [0 0 0 0] ------- [1:0 6:0 31 0] [18] 0 0
s 0.152000000 _1_ AGT  --- 24 cbr 512 [0 0 0 0] ------- [1:0 6:0 32 0] [19] 0 0
r 0.152000000 _1_ RTR  --- 24 cbr 512 [0 0 0 0] ------- [1:0 6:0 32 0] [19] 0 0
D 0.152000000 _1_ RTR NRTE 24 cbr 532 [0 0 0 0] ------- [1:0 6:0 31 0] [19] 0 0
s 0.156480886 _2_ RTR  --- 25 OLSR 48 [0 0 0 0] ------- [2:255 -1:255 32 0] [1 0 [HELLO 2 0 0]]
r 0.158254823 _0_ RTR  --- 25 OLSR 48 [0 ffffffff 2 800] ------- [2:255 -1:255 32 0] [1 0 [HELLO 2 0 0]]
r 0.158254854 _4_ RTR  --- 25 OLSR 48 [0 ffffffff 2 800] ------- [2:255 -1:255 32 0] [1 0 [HELLO 2 0 0]]
s 0.160000000 _1_ AGT  --- 26 cbr 512 [0 0 0 0] ------- [1:0 6:0 32 0] [20] 0 0
r 0.160000000 _1_ RTR  --- 26 cbr 512 [0 0 0 0] ------- [1:0 6:0 32 0] [20] 0 0
D 0.160000000 _1_ RTR NRTE 26 cbr 532 [0 0 0 0] ------- [1:0 6:0 31 0] [20] 0 0
s 0.168000000 _1_ AGT  --- 27 cbr 512 [0 0 0 0] ------- [1:0 6:0 32 0] [21] 0 0
r 0.168000000 _1_ RTR  --- 27 cbr 512 [0 0 0 0] ------- [1:0 6:0 32 0] [21] 0 0
D 0.168000000 _1_ RTR NRTE 27 cbr 532 [0 0 0 0] ------- [1:0 6:0 31 0] [21] 0 0
s 0.174370513 _7_ RTR  --- 28 OLSR 48 [0 0 0 0] ------- [7:255 -1:255 32 0] [1 0 [HELLO 7 0 0]]
s 0.176000000 _1_ AGT  --- 29 cbr 512 [0 0 0 0] ------- [1:0 6:0 32 0] [22] 0 0
r 0.176000000 _1_ RTR  --- 29 cbr 512 [0 0 0 0] ------- [1:0 6:0 32 0] [22] 0 0
D 0.176000000 _1_ RTR NRTE 29 cbr 532 [0 0 0 0] ------- [1:0 6:0 31 0] [22] 0 0
r 0.176464484 _8_ RTR  --- 28 OLSR 48 [0 ffffffff 7 800] ------- [7:255 -1:255 32 0] [1 0 [HELLO 7 0 0]]
r 0.176464499 _5_ RTR  --- 28 OLSR 48 [0 ffffffff 7 800] ------- [7:255 -1:255 32 0] [1 0 [HELLO 7 0 0]]
r 0.176464499 _6_ RTR  --- 28 OLSR 48 [0 ffffffff 7 800] ------- [7:255 -1:255 32 0] [1 0 [HELLO 7 0 0]]
s 0.184000000 _1_ AGT  --- 30 cbr 512 [0 0 0 0] ------- [1:0 6:0 32 0] [23] 0 0
r 0.184000000 _1_ RTR  --- 30 cbr 512 [0 0 0 0] ------- [1:0 6:0 32 0] [23] 0 0
D 0.184000000 _1_ RTR NRTE 30 cbr 532 [0 0 0 0] ------- [1:0 6:0 31 0] [23] 0 0
s 0.192000000 _1_ AGT  --- 31 cbr 512 [0 0 0 0] ------- [1:0 6:0 32 0] [24] 0 0
r 0.192000000 _1_ RTR  --- 31 cbr 512 [0 0 0 0] ------- [1:0 6:0 32 0] [24] 0 0
D 0.192000000 _1_ RTR NRTE 31 cbr 532 [0 0 0 0] ------- [1:0 6:0 31 0] [24] 0 0
s 0.200000000 _1_ AGT  --- 32 cbr 512 [0 0 0 0] ------- [1:0 6:0 32 0] [25] 0 0
r 0.200000000 _1_ RTR  --- 32 cbr 512 [0 0 0 0] ------- [1:0 6:0 32 0] [25] 0 0
D 0.200000000 _1_ RTR NRTE 32 cbr 532 [0 0 0 0] ------- [1:0 6:0 31 0] [25] 0 0
s 0.208000000 _1_ AGT  --- 33 cbr 512 [0 0 0 0] ------- [1:0 6:0 32 0] [26] 0 0
r 0.208000000 _1_ RTR  --- 33 cbr 512 [0 0 0 0] ------- [1:0 6:0 32 0] [26] 0 0
D 0.208000000 _1_ RTR NRTE 33 cbr 532 [0 0 0 0] ------- [1:0 6:0 31 0] [26] 0 0
s 0.216000000 _1_ AGT  --- 34 cbr 512 [0 0 0 0] ------- [1:0 6:0 32 0] [27] 0 0
r 0.216000000 _1_ RTR  --- 34 cbr 512 [0 0 0 0] ------- [1:0 6:0 32 0] [27] 0 0
D 0.216000000 _1_ RTR NRTE 34 cbr 532 [0 0 0 0] ------- [1:0 6:0 31 0] [27] 0 0
s 0.224000000 _1_ AGT  --- 35 cbr 512 [0 0 0 0] ------- [1:0 6:0 32 0] [28] 0 0
r 0.224000000 _1_ RTR  --- 35 cbr 512 [0 0 0 0] ------- [1:0 6:0 32 0] [28] 0 0
D 0.224000000 _1_ RTR NRTE 35 cbr 532 [0 0 0 0] ------- [1:0 6:0 31 0] [28] 0 0
s 0.232000000 _1_ AGT  --- 36 cbr 512 [0 0 0 0] ------- [1:0 6:0 32 0] [29] 0 0
r 0.232000000 _1_ RTR  --- 36 cbr 512 [0 0 0 0] ------- [1:0 6:0 32 0] [29] 0 0
D 0.232000000 _1_ RTR NRTE 36 cbr 532 [0 0 0 0] ------- [1:0 6:0 31 0] [29] 0 0
s 0.240000000 _1_ AGT  --- 37 cbr 512 [0 0 0 0] ------- [1:0 6:0 32 0] [30] 0 0
r 0.240000000 _1_ RTR  --- 37 cbr 512 [0 0 0 0] ------- [1:0 6:0 32 0] [30] 0 0
D 0.240000000 _1_ RTR NRTE 37 cbr 532 [0 0 0 0] ------- [1:0 6:0 31 0] [30] 0 0
s 0.248000000 _1_ AGT  --- 38 cbr 512 [0 0 0 0] ------- [1:0 6:0 32 0] [31] 0 0
r 0.248000000 _1_ RTR  --- 38 cbr 512 [0 0 0 0] ------- [1:0 6:0 32 0] [31] 0 0
D 0.248000000 _1_ RTR NRTE 38 cbr 532 [0 0 0 0] ------- [1:0 6:0 31 0] [31] 0 0
s 0.256000000 _1_ AGT  --- 39 cbr 512 [0 0 0 0] ------- [1:0 6:0 32 0] [32] 0 0
r 0.256000000 _1_ RTR  --- 39 cbr 512 [0 0 0 0] ------- [1:0 6:0 32 0] [32] 0 0
D 0.256000000 _1_ RTR NRTE 39 cbr 532 [0 0 0 0] ------- [1:0 6:0 31 0] [32] 0 0
s 0.259324397 _8_ RTR  --- 40 OLSR 48 [0 0 0 0] ------- [8:255 -1:255 32 0] [1 0 [HELLO 8 0 0]]
r 0.261098369 _7_ RTR  --- 40 OLSR 48 [0 ffffffff 8 800] ------- [8:255 -1:255 32 0] [1 0 [HELLO 8 0 0]]
r 0.261098393 _5_ RTR  --- 40 OLSR 48 [0 ffffffff 8 800] ------- [8:255 -1:255 32 0] [1 0 [HELLO 8 0 0]]
s 0.264000000 _1_ AGT  --- 41 cbr 512 [0 0 0 0] ------- [1:0 6:0 32 0] [33] 0 0
r 0.264000000 _1_ RTR  --- 41 cbr 512 [0 0 0 0] ------- [1:0 6:0 32 0] [33] 0 0
D 0.264000000 _1_ RTR NRTE 41 cbr 532 [0 0 0 0] ------- [1:0 6:0 31 0] [33] 0 0
s 0.272000000 _1_ AGT  --- 42 cbr 512 [0 0 0 0] ------- [1:0 6:0 32 0] [34] 0 0
r 0.272000000 _1_ RTR  --- 42 cbr 512 [0 0 0 0] ------- [1:0 6:0 32 0] [34] 0 0
D 0.272000000 _1_ RTR NRTE 42 cbr 532 [0 0 0 0] ------- [1:0 6:0 31 0] [34] 0 0
s 0.280000000 _1_ AGT  --- 43 cbr 512 [0 0 0 0] ------- [1:0 6:0 32 0] [35] 0 0
r 0.280000000 _1_ RTR  --- 43 cbr 512 [0 0 0 0] ------- [1:0 6:0 32 0] [35] 0 0
D 0.280000000 _1_ RTR NRTE 43 cbr 532 [0 0 0 0] ------- [1:0 6:0 31 0] [35] 0 0
s 0.288000000 _1_ AGT  --- 44 cbr 512 [0 0 0 0] ------- [1:0 6:0 32 0] [36] 0 0
r 0.288000000 _1_ RTR  --- 44 cbr 512 [0 0 0 0] ------- [1:0 6:0 32 0] [36] 0 0
D 0.288000000 _1_ RTR NRTE 44 cbr 532 [0 0 0 0] ------- [1:0 6:0 31 0] [36] 0 0
s 0.296000000 _1_ AGT  --- 45 cbr 512 [0 0 0 0] ------- [1:0 6:0 32 0] [37] 0 0
r 0.296000000 _1_ RTR  --- 45 cbr 512 [0 0 0 0] ------- [1:0 6:0 32 0] [37] 0 0
D 0.296000000 _1_ RTR NRTE 45 cbr 532 [0 0 0 0] ------- [1:0 6:0 31 0] [37] 0 0
s 0.304000000 _1_ AGT  --- 46 cbr 512 [0 0 0 0] ------- [1:0 6:0 32 0] [38] 0 0
r 0.304000000 _1_ RTR  --- 46 cbr 512 [0 0 0 0] ------- [1:0 6:0 32 0] [38] 0 0
D 0.304000000 _1_ RTR NRTE 46 cbr 532 [0 0 0 0] ------- [1:0 6:0 31 0] [38] 0 0
s 0.312000000 _1_ AGT  --- 47 cbr 512 [0 0 0 0] ------- [1:0 6:0 32 0] [39] 0 0
r 0.312000000 _1_ RTR  --- 47 cbr 512 [0 0 0 0] ------- [1:0 6:0 32 0] [39] 0 0
D 0.312000000 _1_ RTR NRTE 47 cbr 532 [0 0 0 0] ------- [1:0 6:0 31 0] [39] 0 0
s 0.319432572 _3_ RTR  --- 48 OLSR 48 [0 0 0 0] ------- [3:255 -1:255 32 0] [1 0 [HELLO 3 0 0]]
s 0.320000000 _1_ AGT  --- 49 cbr 512 [0 0 0 0] ------- [1:0 6:0 32 0] [40] 0 0
r 0.320000000 _1_ RTR  --- 49 cbr 512 [0 0 0 0] ------- [1:0 6:0 32 0] [40] 0 0
D 0.320000000 _1_ RTR NRTE 49 cbr 532 [0 0 0 0] ------- [1:0 6:0 31 0] [40] 0 0
r 0.321066489 _0_ RTR  --- 48 OLSR 48 [0 ffffffff 3 800] ------- [3:255 -1:255 32 0] [1 0 [HELLO 3 0 0]]
r 0.321066525 _5_ RTR  --- 48 OLSR 48 [0 ffffffff 3 800] ------- [3:255 -1:255 32 0] [1 0 [HELLO 3 0 0]]
r 0.321066629 _1_ RTR  --- 48 OLSR 48 [0 ffffffff 3 800] ------- [3:255 -1:255 32 0] [1 0 [HELLO 3 0 0]]
s 0.328000000 _1_ AGT  --- 50 cbr 512 [0 0 0 0] ------- [1:0 6:0 32 0] [41] 0 0
r 0.328000000 _1_ RTR  --- 50 cbr 512 [0 0 0 0] ------- [1:0 6:0 32 0] [41] 0 0
D 0.328000000 _1_ RTR NRTE 50 cbr 532 [0 0 0 0] ------- [1:0 6:0 31 0] [41] 0 0
s 0.336000000 _1_ AGT  --- 51 cbr 512 [0 0 0 0] ------- [1:0 6:0 32 0] [42] 0 0
r 0.336000000 _1_ RTR  --- 51 cbr 512 [0 0 0 0] ------- [1:0 6:0 32 0] [42] 0 0
D 0.336000000 _1_ RTR NRTE 51 cbr 532 [0 0 0 0] ------- [1:0 6:0 31 0] [42] 0 0
s 0.344000000 _1_ AGT  --- 52 cbr 512 [0 0 0 0] ------- [1:0 6:0 32 0] [43] 0 0
r 0.344000000 _1_ RTR  --- 52 cbr 512 [0 0 0 0] ------- [1:0 6:0 32 0] [43] 0 0
D 0.344000000 _1_ RTR NRTE 52 cbr 532 [0 0 0 0] ------- [1:0 6:0 31 0] [43] 0 0
s 0.352000000 _1_ AGT  --- 53 cbr 512 [0 0 0 0] ------- [1:0 6:0 32 0] [44] 0 0
r 0.352000000 _1_ RTR  --- 53 cbr 512 [0 0 0 0] ------- [1:0 6:0 32 0] [44] 0 0
D 0.352000000 _1_ RTR NRTE 53 cbr 532 [0 0 0 0] ------- [1:0 6:0 31 0] [44] 0 0
s 0.360000000 _1_ AGT  --- 54 cbr 512 [0 0 0 0] ------- [1:0 6:0 32 0] [45] 0 0
r 0.360000000 _1_ RTR  --- 54 cbr 512 [0 0 0 0] ------- [1:0 6:0 32 0] [45] 0 0
D 0.360000000 _1_ RTR NRTE 54 cbr 532 [0 0 0 0] ------- [1:0 6:0 31 0] [45] 0 0
s 0.368000000 _1_ AGT  --- 55 cbr 512 [0 0 0 0] ------- [1:0 6:0 32 0] [46] 0 0
r 0.368000000 _1_ RTR  --- 55 cbr 512 [0 0 0 0] ------- [1:0 6:0 32 0] [46] 0 0
D 0.368000000 _1_ RTR NRTE 55 cbr 532 [0 0 0 0] ------- [1:0 6:0 31 0] [46] 0 0
s 0.376000000 _1_ AGT  --- 56 cbr 512 [0 0 0 0] ------- [1:0 6:0 32 0] [47] 0 0
r 0.376000000 _1_ RTR  --- 56 cbr 512 [0 0 0 0] ------- [1:0 6:0 32 0] [47] 0 0
D 0.376000000 _1_ RTR NRTE 56 cbr 532 [0 0 0 0] ------- [1:0 6:0 31 0] [47] 0 0
s 0.384000000 _1_ AGT  --- 57 cbr 512 [0 0 0 0] ------- [1:0 6:0 32 0] [48] 0 0
r 0.384000000 _1_ RTR  --- 57 cbr 512 [0 0 0 0] ------- [1:0 6:0 32 0] [48] 0 0
D 0.384000000 _1_ RTR NRTE 57 cbr 532 [0 0 0 0] ------- [1:0 6:0 31 0] [48] 0 0
s 0.392000000 _1_ AGT  --- 58 cbr 512 [0 0 0 0] ------- [1:0 6:0 32 0] [49] 0 0
r 0.392000000 _1_ RTR  --- 58 cbr 512 [0 0 0 0] ------- [1:0 6:0 32 0] [49] 0 0
D 0.392000000 _1_ RTR NRTE 58 cbr 532 [0 0 0 0] ------- [1:0 6:0 31 0] [49] 0 0
s 0.400000000 _1_ AGT  --- 59 cbr 512 [0 0 0 0] ------- [1:0 6:0 32 0] [50] 0 0
r 0.400000000 _1_ RTR  --- 59 cbr 512 [0 0 0 0] ------- [1:0 6:0 32 0] [50] 0 0
D 0.400000000 _1_ RTR NRTE 59 cbr 532 [0 0 0 0] ------- [1:0 6:0 31 0] [50] 0 0
s 0.408000000 _1_ AGT  --- 60 cbr 512 [0 0 0 0] ------- [1:0 6:0 32 0] [51] 0 0
r 0.408000000 _1_ RTR  --- 60 cbr 512 [0 0 0 0] ------- [1:0 6:0 32 0] [51] 0 0
D 0.408000000 _1_ RTR NRTE 60 cbr 532 [0 0 0 0] ------- [1:0 6:0 31 0] [51] 0 0
s 0.416000000 _1_ AGT  --- 61 cbr 512 [0 0 0 0] ------- [1:0 6:0 32 0] [52] 0 0
r 0.416000000 _1_ RTR  --- 61 cbr 512 [0 0 0 0] ------- [1:0 6:0 32 0] [52] 0 0
D 0.416000000 _1_ RTR NRTE 61 cbr 532 [0 0 0 0] ------- [1:0 6:0 31 0] [52] 0 0
s 0.424000000 _1_ AGT  --- 62 cbr 512 [0 0 0 0] ------- [1:0 6:0 32 0] [53] 0 0
r 0.424000000 _1_ RTR  --- 62 cbr 512 [0 0 0 0] ------- [1:0 6:0 32 0] [53] 0 0
D 0.424000000 _1_ RTR NRTE 62 cbr 532 [0 0 0 0] ------- [1:0 6:0 31 0] [53] 0 0
s 0.432000000 _1_ AGT  --- 63 cbr 512 [0 0 0 0] ------- [1:0 6:0 32 0] [54] 0 0
r 0.432000000 _1_ RTR  --- 63 cbr 512 [0 0 0 0] ------- [1:0 6:0 32 0] [54] 0 0
D 0.432000000 _1_ RTR NRTE 63 cbr 532 [0 0 0 0] ------- [1:0 6:0 31 0] [54] 0 0
s 0.440000000 _1_ AGT  --- 64 cbr 512 [0 0 0 0] ------- [1:0 6:0 32 0] [55] 0 0
r 0.440000000 _1_ RTR  --- 64 cbr 512 [0 0 0 0] ------- [1:0 6:0 32 0] [55] 0 0
D 0.440000000 _1_ RTR NRTE 64 cbr 532 [0 0 0 0] ------- [1:0 6:0 31 0] [55] 0 0
s 0.448000000 _1_ AGT  --- 65 cbr 512 [0 0 0 0] ------- [1:0 6:0 32 0] [56] 0 0
r 0.448000000 _1_ RTR  --- 65 cbr 512 [0 0 0 0] ------- [1:0 6:0 32 0] [56] 0 0
D 0.448000000 _1_ RTR NRTE 65 cbr 532 [0 0 0 0] ------- [1:0 6:0 31 0] [56] 0 0
s 0.456000000 _1_ AGT  --- 66 cbr 512 [0 0 0 0] ------- [1:0 6:0 32 0] [57] 0 0
r 0.456000000 _1_ RTR  --- 66 cbr 512 [0 0 0 0] ------- [1:0 6:0 32 0] [57] 0 0
D 0.456000000 _1_ RTR NRTE 66 cbr 532 [0 0 0 0] ------- [1:0 6:0 31 0] [57] 0 0
s 0.464000000 _1_ AGT  --- 67 cbr 512 [0 0 0 0] ------- [1:0 6:0 32 0] [58] 0 0
r 0.464000000 _1_ RTR  --- 67 cbr 512 [0 0 0 0] ------- [1:0 6:0 32 0] [58] 0 0
D 0.464000000 _1_ RTR NRTE 67 cbr 532 [0 0 0 0] ------- [1:0 6:0 31 0] [58] 0 0
s 0.472000000 _1_ AGT  --- 68 cbr 512 [0 0 0 0] ------- [1:0 6:0 32 0] [59] 0 0
r 0.472000000 _1_ RTR  --- 68 cbr 512 [0 0 0 0] ------- [1:0 6:0 32 0] [59] 0 0
D 0.472000000 _1_ RTR NRTE 68 cbr 532 [0 0 0 0] ------- [1:0 6:0 31 0] [59] 0 0
s 0.480000000 _1_ AGT  --- 69 cbr 512 [0 0 0 0] ------- [1:0 6:0 32 0] [60] 0 0
r 0.480000000 _1_ RTR  --- 69 cbr 512 [0 0 0 0] ------- [1:0 6:0 32 0] [60] 0 0
D 0.480000000 _1_ RTR NRTE 69 cbr 532 [0 0 0 0] ------- [1:0 6:0 31 0] [60] 0 0
s 0.488000000 _1_ AGT  --- 70 cbr 512 [0 0 0 0] ------- [1:0 6:0 32 0] [61] 0 0
r 0.488000000 _1_ RTR  --- 70 cbr 512 [0 0 0 0] ------- [1:0 6:0 32 0] [61] 0 0
D 0.488000000 _1_ RTR NRTE 70 cbr 532 [0 0 0 0] ------- [1:0 6:0 31 0] [61] 0 0
s 0.496000000 _1_ AGT  --- 71 cbr 512 [0 0 0 0] ------- [1:0 6:0 32 0] [62] 0 0
r 0.496000000 _1_ RTR  --- 71 cbr 512 [0 0 0 0] ------- [1:0 6:0 32 0] [62] 0 0
D 0.496000000 _1_ RTR NRTE 71 cbr 532 [0 0 0 0] ------- [1:0 6:0 31 0] [62] 0 0
s 0.504000000 _1_ AGT  --- 72 cbr 512 [0 0 0 0] ------- [1:0 6:0 32 0] [63] 0 0
r 0.504000000 _1_ RTR  --- 72 cbr 512 [0 0 0 0] ------- [1:0 6:0 32 0] [63] 0 0
D 0.504000000 _1_ RTR NRTE 72 cbr 532 [0 0 0 0] ------- [1:0 6:0 31 0] [63] 0 0
s 0.512000000 _1_ AGT  --- 73 cbr 512 [0 0 0 0] ------- [1:0 6:0 32 0] [64] 0 0
r 0.512000000 _1_ RTR  --- 73 cbr 512 [0 0 0 0] ------- [1:0 6:0 32 0] [64] 0 0
D 0.512000000 _1_ RTR NRTE 73 cbr 532 [0 0 0 0] ------- [1:0 6:0 31 0] [64] 0 0
s 0.520000000 _1_ AGT  --- 74 cbr 512 [0 0 0 0] ------- [1:0 6:0 32 0] [65] 0 0
r 0.520000000 _1_ RTR  --- 74 cbr 512 [0 0 0 0] ------- [1:0 6:0 32 0] [65] 0 0
D 0.520000000 _1_ RTR NRTE 74 cbr 532 [0 0 0 0] ------- [1:0 6:0 31 0] [65] 0 0
s 0.528000000 _1_ AGT  --- 75 cbr 512 [0 0 0 0] ------- [1:0 6:0 32 0] [66] 0 0
r 0.528000000 _1_ RTR  --- 75 cbr 512 [0 0 0 0] ------- [1:0 6:0 32 0] [66] 0 0
D 0.528000000 _1_ RTR NRTE 75 cbr 532 [0 0 0 0] ------- [1:0 6:0 31 0] [66] 0 0
s 0.536000000 _1_ AGT  --- 76 cbr 512 [0 0 0 0] ------- [1:0 6:0 32 0] [67] 0 0
r 0.536000000 _1_ RTR  --- 76 cbr 512 [0 0 0 0] ------- [1:0 6:0 32 0] [67] 0 0
D 0.536000000 _1_ RTR NRTE 76 cbr 532 [0 0 0 0] ------- [1:0 6:0 31 0] [67] 0 0
s 0.544000000 _1_ AGT  --- 77 cbr 512 [0 0 0 0] ------- [1:0 6:0 32 0] [68] 0 0
r 0.544000000 _1_ RTR  --- 77 cbr 512 [0 0 0 0] ------- [1:0 6:0 32 0] [68] 0 0
D 0.544000000 _1_ RTR NRTE 77 cbr 532 [0 0 0 0] ------- [1:0 6:0 31 0] [68] 0 0
s 0.552000000 _1_ AGT  --- 78 cbr 512 [0 0 0 0] ------- [1:0 6:0 32 0] [69] 0 0
r 0.552000000 _1_ RTR  --- 78 cbr 512 [0 0 0 0] ------- [1:0 6:0 32 0] [69] 0 0
D 0.552000000 _1_ RTR NRTE 78 cbr 532 [0 0 0 0] ------- [1:0 6:0 31 0] [69] 0 0
s 0.560000000 _1_ AGT  --- 79 cbr 512 [0 0 0 0] ------- [1:0 6:0 32 0] [70] 0 0
r 0.560000000 _1_ RTR  --- 79 cbr 512 [0 0 0 0] ------- [1:0 6:0 32 0] [70] 0 0
D 0.560000000 _1_ RTR NRTE 79 cbr 532 [0 0 0 0] ------- [1:0 6:0 31 0] [70] 0 0
s 0.568000000 _1_ AGT  --- 80 cbr 512 [0 0 0 0] ------- [1:0 6:0 32 0] [71] 0 0
r 0.568000000 _1_ RTR  --- 80 cbr 512 [0 0 0 0] ------- [1:0 6:0 32 0] [71] 0 0
D 0.568000000 _1_ RTR NRTE 80 cbr 532 [0 0 0 0] ------- [1:0 6:0 31 0] [71] 0 0
s 0.576000000 _1_ AGT  --- 81 cbr 512 [0 0 0 0] ------- [1:0 6:0 32 0] [72] 0 0
r 0.576000000 _1_ RTR  --- 81 cbr 512 [0 0 0 0] ------- [1:0 6:0 32 0] [72] 0 0
D 0.576000000 _1_ RTR NRTE 81 cbr 532 [0 0 0 0] ------- [1:0 6:0 31 0] [72] 0 0
s 0.584000000 _1_ AGT  --- 82 cbr 512 [0 0 0 0] ------- [1:0 6:0 32 0] [73] 0 0
r 0.584000000 _1_ RTR  --- 82 cbr 512 [0 0 0 0] ------- [1:0 6:0 32 0] [73] 0 0
D 0.584000000 _1_ RTR NRTE 82 cbr 532 [0 0 0 0] ------- [1:0 6:0 31 0] [73] 0 0
s 0.592000000 _1_ AGT  --- 83 cbr 512 [0 0 0 0] ------- [1:0 6:0 32 0] [74] 0 0
r 0.592000000 _1_ RTR  --- 83 cbr 512 [0 0 0 0] ------- [1:0 6:0 32 0] [74] 0 0
D 0.592000000 _1_ RTR NRTE 83 cbr 532 [0 0 0 0] ------- [1:0 6:0 31 0] [74] 0 0
s 0.600000000 _1_ AGT  --- 84 cbr 512 [0 0 0 0] ------- [1:0 6:0 32 0] [75] 0 0
r 0.600000000 _1_ RTR  --- 84 cbr 512 [0 0 0 0] ------- [1:0 6:0 32 0] [75] 0 0
D 0.600000000 _1_ RTR NRTE 84 cbr 532 [0 0 0 0] ------- [1:0 6:0 31 0] [75] 0 0
s 0.608000000 _1_ AGT  --- 85 cbr 512 [0 0 0 0] ------- [1:0 6:0 32 0] [76] 0 0
r 0.608000000 _1_ RTR  --- 85 cbr 512 [0 0 0 0] ------- [1:0 6:0 32 0] [76] 0 0
D 0.608000000 _1_ RTR NRTE 85 cbr 532 [0 0 0 0] ------- [1:0 6:0 31 0] [76] 0 0
s 0.616000000 _1_ AGT  --- 86 cbr 512 [0 0 0 0] ------- [1:0 6:0 32 0] [77] 0 0
r 0.616000000 _1_ RTR  --- 86 cbr 512 [0 0 0 0] ------- [1:0 6:0 32 0] [77] 0 0
D 0.616000000 _1_ RTR NRTE 86 cbr 532 [0 0 0 0] ------- [1:0 6:0 31 0] [77] 0 0
s 0.624000000 _1_ AGT  --- 87 cbr 512 [0 0 0 0] ------- [1:0 6:0 32 0] [78] 0 0
r 0.624000000 _1_ RTR  --- 87 cbr 512 [0 0 0 0] ------- [1:0 6:0 32 0] [78] 0 0
D 0.624000000 _1_ RTR NRTE 87 cbr 532 [0 0 0 0] ------- [1:0 6:0 31 0] [78] 0 0
s 0.632000000 _1_ AGT  --- 88 cbr 512 [0 0 0 0] ------- [1:0 6:0 32 0] [79] 0 0
r 0.632000000 _1_ RTR  --- 88 cbr 512 [0 0 0 0] ------- [1:0 6:0 32 0] [79] 0 0
D 0.632000000 _1_ RTR NRTE 88 cbr 532 [0 0 0 0] ------- [1:0 6:0 31 0] [79] 0 0
s 0.640000000 _1_ AGT  --- 89 cbr 512 [0 0 0 0] ------- [1:0 6:0 32 0] [80] 0 0
r 0.640000000 _1_ RTR  --- 89 cbr 512 [0 0 0 0] ------- [1:0 6:0 32 0] [80] 0 0
D 0.640000000 _1_ RTR NRTE 89 cbr 532 [0 0 0 0] ------- [1:0 6:0 31 0] [80] 0 0
s 0.648000000 _1_ AGT  --- 90 cbr 512 [0 0 0 0] ------- [1:0 6:0 32 0] [81] 0 0
r 0.648000000 _1_ RTR  --- 90 cbr 512 [0 0 0 0] ------- [1:0 6:0 32 0] [81] 0 0
D 0.648000000 _1_ RTR NRTE 90 cbr 532 [0 0 0 0] ------- [1:0 6:0 31 0] [81] 0 0
s 0.656000000 _1_ AGT  --- 91 cbr 512 [0 0 0 0] ------- [1:0 6:0 32 0] [82] 0 0
r 0.656000000 _1_ RTR  --- 91 cbr 512 [0 0 0 0] ------- [1:0 6:0 32 0] [82] 0 0
D 0.656000000 _1_ RTR NRTE 91 cbr 532 [0 0 0 0] ------- [1:0 6:0 31 0] [82] 0 0
s 0.664000000 _1_ AGT  --- 92 cbr 512 [0 0 0 0] ------- [1:0 6:0 32 0] [83] 0 0
r 0.664000000 _1_ RTR  --- 92 cbr 512 [0 0 0 0] ------- [1:0 6:0 32 0] [83] 0 0
D 0.664000000 _1_ RTR NRTE 92 cbr 532 [0 0 0 0] ------- [1:0 6:0 31 0] [83] 0 0
s 0.672000000 _1_ AGT  --- 93 cbr 512 [0 0 0 0] ------- [1:0 6:0 32 0] [84] 0 0
r 0.672000000 _1_ RTR  --- 93 cbr 512 [0 0 0 0] ------- [1:0 6:0 32 0] [84] 0 0
D 0.672000000 _1_ RTR NRTE 93 cbr 532 [0 0 0 0] ------- [1:0 6:0 31 0] [84] 0 0
s 0.680000000 _1_ AGT  --- 94 cbr 512 [0 0 0 0] ------- [1:0 6:0 32 0] [85] 0 0
r 0.680000000 _1_ RTR  --- 94 cbr 512 [0 0 0 0] ------- [1:0 6:0 32 0] [85] 0 0
D 0.680000000 _1_ RTR NRTE 94 cbr 532 [0 0 0 0] ------- [1:0 6:0 31 0] [85] 0 0
s 0.688000000 _1_ AGT  --- 95 cbr 512 [0 0 0 0] ------- [1:0 6:0 32 0] [86] 0 0
r 0.688000000 _1_ RTR  --- 95 cbr 512 [0 0 0 0] ------- [1:0 6:0 32 0] [86] 0 0
D 0.688000000 _1_ RTR NRTE 95 cbr 532 [0 0 0 0] ------- [1:0 6:0 31 0] [86] 0 0
s 0.696000000 _1_ AGT  --- 96 cbr 512 [0 0 0 0] ------- [1:0 6:0 32 0] [87] 0 0
r 0.696000000 _1_ RTR  --- 96 cbr 512 [0 0 0 0] ------- [1:0 6:0 32 0] [87] 0 0
D 0.696000000 _1_ RTR NRTE 96 cbr 532 [0 0 0 0] ------- [1:0 6:0 31 0] [87] 0 0
s 0.704000000 _1_ AGT  --- 97 cbr 512 [0 0 0 0] ------- [1:0 6:0 32 0] [88] 0 0
r 0.704000000 _1_ RTR  --- 97 cbr 512 [0 0 0 0] ------- [1:0 6:0 32 0] [88] 0 0
D 0.704000000 _1_ RTR NRTE 97 cbr 532 [0 0 0 0] ------- [1:0 6:0 31 0] [88] 0 0
s 0.712000000 _1_ AGT  --- 98 cbr 512 [0 0 0 0] ------- [1:0 6:0 32 0] [89] 0 0
r 0.712000000 _1_ RTR  --- 98 cbr 512 [0 0 0 0] ------- [1:0 6:0 32 0] [89] 0 0
D 0.712000000 _1_ RTR NRTE 98 cbr 532 [0 0 0 0] ------- [1:0 6:0 31 0] [89] 0 0
s 0.720000000 _1_ AGT  --- 99 cbr 512 [0 0 0 0] ------- [1:0 6:0 32 0] [90] 0 0
r 0.720000000 _1_ RTR  --- 99 cbr 512 [0 0 0 0] ------- [1:0 6:0 32 0] [90] 0 0
D 0.720000000 _1_ RTR NRTE 99 cbr 532 [0 0 0 0] ------- [1:0 6:0 31 0] [90] 0 0
s 0.728000000 _1_ AGT  --- 100 cbr 512 [0 0 0 0] ------- [1:0 6:0 32 0] [91] 0 0
r 0.728000000 _1_ RTR  --- 100 cbr 512 [0 0 0 0] ------- [1:0 6:0 32 0] [91] 0 0
D 0.728000000 _1_ RTR NRTE 100 cbr 532 [0 0 0 0] ------- [1:0 6:0 31 0] [91] 0 0
s 0.736000000 _1_ AGT  --- 101 cbr 512 [0 0 0 0] ------- [1:0 6:0 32 0] [92] 0 0
r 0.736000000 _1_ RTR  --- 101 cbr 512 [0 0 0 0] ------- [1:0 6:0 32 0] [92] 0 0
D 0.736000000 _1_ RTR NRTE 101 cbr 532 [0 0 0 0] ------- [1:0 6:0 31 0] [92] 0 0
s 0.744000000 _1_ AGT  --- 102 cbr 512 [0 0 0 0] ------- [1:0 6:0 32 0] [93] 0 0
r 0.744000000 _1_ RTR  --- 102 cbr 512 [0 0 0 0] ------- [1:0 6:0 32 0] [93] 0 0
D 0.744000000 _1_ RTR NRTE 102 cbr 532 [0 0 0 0] ------- [1:0 6:0 31 0] [93] 0 0
s 0.752000000 _1_ AGT  --- 103 cbr 512 [0 0 0 0] ------- [1:0 6:0 32 0] [94] 0 0
r 0.752000000 _1_ RTR  --- 103 cbr 512 [0 0 0 0] ------- [1:0 6:0 32 0] [94] 0 0
D 0.752000000 _1_ RTR NRTE 103 cbr 532 [0 0 0 0] ------- [1:0 6:0 31 0] [94] 0 0
s 0.760000000 _1_ AGT  --- 104 cbr 512 [0 0 0 0] ------- [1:0 6:0 32 0] [95] 0 0
r 0.760000000 _1_ RTR  --- 104 cbr 512 [0 0 0 0] ------- [1:0 6:0 32 0] [95] 0 0
D 0.760000000 _1_ RTR NRTE 104 cbr 532 [0 0 0 0] ------- [1:0 6:0 31 0] [95] 0 0
s 0.768000000 _1_ AGT  --- 105 cbr 512 [0 0 0 0] ------- [1:0 6:0 32 0] [96] 0 0
r 0.768000000 _1_ RTR  --- 105 cbr 512 [0 0 0 0] ------- [1:0 6:0 32 0] [96] 0 0
D 0.768000000 _1_ RTR NRTE 105 cbr 532 [0 0 0 0] ------- [1:0 6:0 31 0] [96] 0 0
s 0.776000000 _1_ AGT  --- 106 cbr 512 [0 0 0 0] ------- [1:0 6:0 32 0] [97] 0 0
r 0.776000000 _1_ RTR  --- 106 cbr 512 [0 0 0 0] ------- [1:0 6:0 32 0] [97] 0 0
D 0.776000000 _1_ RTR NRTE 106 cbr 532 [0 0 0 0] ------- [1:0 6:0 31 0] [97] 0 0
s 0.784000000 _1_ AGT  --- 107 cbr 512 [0 0 0 0] ------- [1:0 6:0 32 0] [98] 0 0
r 0.784000000 _1_ RTR  --- 107 cbr 512 [0 0 0 0] ------- [1:0 6:0 32 0] [98] 0 0
D 0.784000000 _1_ RTR NRTE 107 cbr 532 [0 0 0 0] ------- [1:0 6:0 31 0] [98] 0 0
s 0.792000000 _1_ AGT  --- 108 cbr 512 [0 0 0 0] ------- [1:0 6:0 32 0] [99] 0 0
r 0.792000000 _1_ RTR  --- 108 cbr 512 [0 0 0 0] ------- [1:0 6:0 32 0] [99] 0 0
D 0.792000000 _1_ RTR NRTE 108 cbr 532 [0 0 0 0] ------- [1:0 6:0 31 0] [99] 0 0
s 0.800000000 _1_ AGT  --- 109 cbr 512 [0 0 0 0] ------- [1:0 6:0 32 0] [100] 0 0
r 0.800000000 _1_ RTR  --- 109 cbr 512 [0 0 0 0] ------- [1:0 6:0 32 0] [100] 0 0
D 0.800000000 _1_ RTR NRTE 109 cbr 532 [0 0 0 0] ------- [1:0 6:0 31 0] [100] 0 0
s 0.808000000 _1_ AGT  --- 110 cbr 512 [0 0 0 0] ------- [1:0 6:0 32 0] [101] 0 0
r 0.808000000 _1_ RTR  --- 110 cbr 512 [0 0 0 0] ------- [1:0 6:0 32 0] [101] 0 0
D 0.808000000 _1_ RTR NRTE 110 cbr 532 [0 0 0 0] ------- [1:0 6:0 31 0] [101] 0 0
s 0.816000000 _1_ AGT  --- 111 cbr 512 [0 0 0 0] ------- [1:0 6:0 32 0] [102] 0 0
r 0.816000000 _1_ RTR  --- 111 cbr 512 [0 0 0 0] ------- [1:0 6:0 32 0] [102] 0 0
D 0.816000000 _1_ RTR NRTE 111 cbr 532 [0 0 0 0] ------- [1:0 6:0 31 0] [102] 0 0
s 0.824000000 _1_ AGT  --- 112 cbr 512 [0 0 0 0] ------- [1:0 6:0 32 0] [103] 0 0
r 0.824000000 _1_ RTR  --- 112 cbr 512 [0 0 0 0] ------- [1:0 6:0 32 0] [103] 0 0
D 0.824000000 _1_ RTR NRTE 112 cbr 532 [0 0 0 0] ------- [1:0 6:0 31 0] [103] 0 0
s 0.832000000 _1_ AGT  --- 113 cbr 512 [0 0 0 0] ------- [1:0 6:0 32 0] [104] 0 0
r 0.832000000 _1_ RTR  --- 113 cbr 512 [0 0 0 0] ------- [1:0 6:0 32 0] [104] 0 0
D 0.832000000 _1_ RTR NRTE 113 cbr 532 [0 0 0 0] ------- [1:0 6:0 31 0] [104] 0 0
s 0.840000000 _1_ AGT  --- 114 cbr 512 [0 0 0 0] ------- [1:0 6:0 32 0] [105] 0 0
r 0.840000000 _1_ RTR  --- 114 cbr 512 [0 0 0 0] ------- [1:0 6:0 32 0] [105] 0 0
D 0.840000000 _1_ RTR NRTE 114 cbr 532 [0 0 0 0] ------- [1:0 6:0 31 0] [105] 0 0
s 0.848000000 _1_ AGT  --- 115 cbr 512 [0 0 0 0] ------- [1:0 6:0 32 0] [106] 0 0
r 0.848000000 _1_ RTR  --- 115 cbr 512 [0 0 0 0] ------- [1:0 6:0 32 0] [106] 0 0
D 0.848000000 _1_ RTR NRTE 115 cbr 532 [0 0 0 0] ------- [1:0 6:0 31 0] [106] 0 0
s 0.856000000 _1_ AGT  --- 116 cbr 512 [0 0 0 0] ------- [1:0 6:0 32 0] [107] 0 0
r 0.856000000 _1_ RTR  --- 116 cbr 512 [0 0 0 0] ------- [1:0 6:0 32 0] [107] 0 0
D 0.856000000 _1_ RTR NRTE 116 cbr 532 [0 0 0 0] ------- [1:0 6:0 31 0] [107] 0 0
s 0.864000000 _1_ AGT  --- 117 cbr 512 [0 0 0 0] ------- [1:0 6:0 32 0] [108] 0 0
r 0.864000000 _1_ RTR  --- 117 cbr 512 [0 0 0 0] ------- [1:0 6:0 32 0] [108] 0 0
D 0.864000000 _1_ RTR NRTE 117 cbr 532 [0 0 0 0] ------- [1:0 6:0 31 0] [108] 0 0
s 0.872000000 _1_ AGT  --- 118 cbr 512 [0 0 0 0] ------- [1:0 6:0 32 0] [109] 0 0
r 0.872000000 _1_ RTR  --- 118 cbr 512 [0 0 0 0] ------- [1:0 6:0 32 0] [109] 0 0
D 0.872000000 _1_ RTR NRTE 118 cbr 532 [0 0 0 0] ------- [1:0 6:0 31 0] [109] 0 0
s 0.880000000 _1_ AGT  --- 119 cbr 512 [0 0 0 0] ------- [1:0 6:0 32 0] [110] 0 0
r 0.880000000 _1_ RTR  --- 119 cbr 512 [0 0 0 0] ------- [1:0 6:0 32 0] [110] 0 0
D 0.880000000 _1_ RTR NRTE 119 cbr 532 [0 0 0 0] ------- [1:0 6:0 31 0] [110] 0 0
s 0.888000000 _1_ AGT  --- 120 cbr 512 [0 0 0 0] ------- [1:0 6:0 32 0] [111] 0 0
r 0.888000000 _1_ RTR  --- 120 cbr 512 [0 0 0 0] ------- [1:0 6:0 32 0] [111] 0 0
D 0.888000000 _1_ RTR NRTE 120 cbr 532 [0 0 0 0] ------- [1:0 6:0 31 0] [111] 0 0
s 0.896000000 _1_ AGT  --- 121 cbr 512 [0 0 0 0] ------- [1:0 6:0 32 0] [112] 0 0